 Phosphorous+4
GAUSSIAN             11 MOL ORBITALS     52 PRIMITIVES        1 NUCLEI
  P    1    (CENTRE  1)   0.00000000  0.00000000  0.00000000  CHARGE = 15.0
CENTRE ASSIGNMENTS    1  1  1  1  1  1  1  1  1  1  1  1  1  1  1  1  1  1  1  1
CENTRE ASSIGNMENTS    1  1  1  1  1  1  1  1  1  1  1  1  1  1  1  1  1  1  1  1
CENTRE ASSIGNMENTS    1  1  1  1  1  1  1  1  1  1  1  1
TYPE ASSIGNMENTS      1  1  1  1  1  1  1  1  1  1  1  1  2  2  2  2  2  2  3  3
TYPE ASSIGNMENTS      3  3  3  3  4  4  4  4  4  4  1  1  1  2  2  2  3  3  3  4
TYPE ASSIGNMENTS      4  4  1  2  3  4  5  6  7  8  9 10
EXPONENTS  0.1941330D+05 0.2909420D+04 0.6613640D+03 0.1857590D+03 0.5919430D+02
EXPONENTS  0.2003100D+02 0.3394780D+03 0.8101010D+02 0.2587800D+02 0.9452210D+01
EXPONENTS  0.3665660D+01 0.1467460D+01 0.3394780D+03 0.8101010D+02 0.2587800D+02
EXPONENTS  0.9452210D+01 0.3665660D+01 0.1467460D+01 0.3394780D+03 0.8101010D+02
EXPONENTS  0.2587800D+02 0.9452210D+01 0.3665660D+01 0.1467460D+01 0.3394780D+03
EXPONENTS  0.8101010D+02 0.2587800D+02 0.9452210D+01 0.3665660D+01 0.1467460D+01
EXPONENTS  0.2156230D+01 0.7489970D+00 0.2831450D+00 0.2156230D+01 0.7489970D+00
EXPONENTS  0.2831450D+00 0.2156230D+01 0.7489970D+00 0.2831450D+00 0.2156230D+01
EXPONENTS  0.7489970D+00 0.2831450D+00 0.9983170D-01 0.9983170D-01 0.9983170D-01
EXPONENTS  0.9983170D-01 0.5500000D+00 0.5500000D+00 0.5500000D+00 0.5500000D+00
EXPONENTS  0.5500000D+00 0.5500000D+00
MO    1     MO 0.0        OCC NO =    1.0000000  ORB. ENERGY =  -79.337231
  0.21623932D+01  0.39961862D+01  0.64824373D+01  0.85778717D+01  0.73460091D+01
  0.22536889D+01 -0.21831765D-02 -0.96583937D-02 -0.13277261D-01  0.51792750D-02
  0.16150074D-01  0.53417718D-02  0.00000000D+00  0.00000000D+00  0.00000000D+00
  0.00000000D+00  0.00000000D+00  0.00000000D+00  0.00000000D+00  0.00000000D+00
  0.00000000D+00  0.00000000D+00  0.00000000D+00  0.00000000D+00  0.00000000D+00
  0.00000000D+00  0.00000000D+00  0.00000000D+00  0.00000000D+00  0.00000000D+00
  0.82745612D-02 -0.48629885D-03 -0.77164603D-02 -0.00000000D+00  0.00000000D+00
  0.00000000D+00 -0.00000000D+00  0.00000000D+00  0.00000000D+00 -0.00000000D+00
  0.00000000D+00  0.00000000D+00  0.45009075D-03  0.00000000D+00  0.00000000D+00
  0.00000000D+00  0.52507042D-02  0.52507042D-02  0.52507042D-02  0.00000000D+00
  0.00000000D+00  0.00000000D+00
MO    2     MO 0.0        OCC NO =    1.0000000  ORB. ENERGY =   -8.690389
 -0.59748980D+00 -0.11041842D+01 -0.17911590D+01 -0.23701475D+01 -0.20297721D+01
 -0.62271565D+00 -0.16120094D+00 -0.71315448D+00 -0.98036365D+00  0.38242624D+00
  0.11924859D+01  0.39442464D+00  0.00000000D+00  0.00000000D+00  0.00000000D+00
  0.00000000D+00  0.00000000D+00  0.00000000D+00  0.00000000D+00  0.00000000D+00
  0.00000000D+00  0.00000000D+00  0.00000000D+00  0.00000000D+00  0.00000000D+00
  0.00000000D+00  0.00000000D+00  0.00000000D+00  0.00000000D+00  0.00000000D+00
 -0.13757752D-01  0.80854789D-03  0.12829822D-01 -0.00000000D+00  0.00000000D+00
  0.00000000D+00 -0.00000000D+00  0.00000000D+00  0.00000000D+00 -0.00000000D+00
  0.00000000D+00  0.00000000D+00 -0.11015896D-02  0.00000000D+00  0.00000000D+00
  0.00000000D+00 -0.54726826D-02 -0.54726826D-02 -0.54726826D-02  0.00000000D+00
  0.00000000D+00  0.00000000D+00
MO    3     MO 0.0        OCC NO =    1.0000000  ORB. ENERGY =   -6.857444
  0.00000000D+00  0.00000000D+00  0.00000000D+00  0.00000000D+00  0.00000000D+00
  0.00000000D+00 -0.00000000D+00 -0.00000000D+00 -0.00000000D+00  0.00000000D+00
  0.00000000D+00  0.00000000D+00  0.00000000D+00  0.00000000D+00  0.00000000D+00
  0.00000000D+00  0.00000000D+00  0.00000000D+00  0.94375077D+01  0.11618753D+02
  0.11573611D+02  0.79802787D+01  0.32451056D+01  0.54675271D+00  0.00000000D+00
  0.00000000D+00  0.00000000D+00  0.00000000D+00  0.00000000D+00  0.00000000D+00
 -0.00000000D+00  0.00000000D+00  0.00000000D+00 -0.00000000D+00  0.00000000D+00
  0.00000000D+00 -0.10650493D-02  0.43814807D-02  0.37221335D-02 -0.00000000D+00
  0.00000000D+00  0.00000000D+00  0.00000000D+00  0.00000000D+00 -0.30399703D-03
  0.00000000D+00  0.00000000D+00  0.00000000D+00  0.00000000D+00  0.00000000D+00
  0.00000000D+00  0.00000000D+00
MO    4     MO 0.0        OCC NO =    1.0000000  ORB. ENERGY =   -6.857444
  0.00000000D+00  0.00000000D+00  0.00000000D+00  0.00000000D+00  0.00000000D+00
  0.00000000D+00 -0.00000000D+00 -0.00000000D+00 -0.00000000D+00  0.00000000D+00
  0.00000000D+00  0.00000000D+00  0.94375077D+01  0.11618753D+02  0.11573611D+02
  0.79802787D+01  0.32451056D+01  0.54675271D+00  0.00000000D+00  0.00000000D+00
  0.00000000D+00  0.00000000D+00  0.00000000D+00  0.00000000D+00  0.00000000D+00
  0.00000000D+00  0.00000000D+00  0.00000000D+00  0.00000000D+00  0.00000000D+00
 -0.00000000D+00  0.00000000D+00  0.00000000D+00 -0.10650493D-02  0.43814807D-02
  0.37221335D-02 -0.00000000D+00  0.00000000D+00  0.00000000D+00 -0.00000000D+00
  0.00000000D+00  0.00000000D+00  0.00000000D+00 -0.30399703D-03  0.00000000D+00
  0.00000000D+00  0.00000000D+00  0.00000000D+00  0.00000000D+00  0.00000000D+00
  0.00000000D+00  0.00000000D+00
MO    5     MO 0.0        OCC NO =    1.0000000  ORB. ENERGY =   -6.857444
  0.00000000D+00  0.00000000D+00  0.00000000D+00  0.00000000D+00  0.00000000D+00
  0.00000000D+00 -0.00000000D+00 -0.00000000D+00 -0.00000000D+00  0.00000000D+00
  0.00000000D+00  0.00000000D+00  0.00000000D+00  0.00000000D+00  0.00000000D+00
  0.00000000D+00  0.00000000D+00  0.00000000D+00  0.00000000D+00  0.00000000D+00
  0.00000000D+00  0.00000000D+00  0.00000000D+00  0.00000000D+00  0.94375077D+01
  0.11618753D+02  0.11573611D+02  0.79802787D+01  0.32451056D+01  0.54675271D+00
 -0.00000000D+00  0.00000000D+00  0.00000000D+00 -0.00000000D+00  0.00000000D+00
  0.00000000D+00 -0.00000000D+00  0.00000000D+00  0.00000000D+00 -0.10650493D-02
  0.43814807D-02  0.37221335D-02  0.00000000D+00  0.00000000D+00  0.00000000D+00
 -0.30399703D-03  0.00000000D+00  0.00000000D+00  0.00000000D+00  0.00000000D+00
  0.00000000D+00  0.00000000D+00
MO    6     MO 0.0        OCC NO =    1.0000000  ORB. ENERGY =   -2.229576
  0.20717744D+00  0.38287191D+00  0.62107796D+00  0.82184011D+00  0.70381618D+00
  0.21592441D+00  0.59558714D-01  0.26348832D+00  0.36221377D+00 -0.14129456D+00
 -0.44058630D+00 -0.14572759D+00  0.00000000D+00  0.00000000D+00  0.00000000D+00
  0.00000000D+00  0.00000000D+00  0.00000000D+00  0.00000000D+00  0.00000000D+00
  0.00000000D+00  0.00000000D+00  0.00000000D+00  0.00000000D+00  0.00000000D+00
  0.00000000D+00  0.00000000D+00  0.00000000D+00  0.00000000D+00  0.00000000D+00
 -0.43838661D+00  0.25764134D-01  0.40881840D+00 -0.00000000D+00  0.00000000D+00
  0.00000000D+00 -0.00000000D+00  0.00000000D+00  0.00000000D+00 -0.00000000D+00
  0.00000000D+00  0.00000000D+00 -0.11244116D-01  0.00000000D+00  0.00000000D+00
  0.00000000D+00 -0.61307695D-01 -0.61307695D-01 -0.61307695D-01  0.00000000D+00
  0.00000000D+00  0.00000000D+00
MO   20     MO 0.0        OCC NO =    1.0000000  ORB. ENERGY =  -79.326275
  0.21623726D+01  0.39961481D+01  0.64823755D+01  0.85777899D+01  0.73459390D+01
  0.22536674D+01 -0.21887278D-02 -0.96829527D-02 -0.13311022D-01  0.51924447D-02
  0.16191140D-01  0.53553547D-02  0.00000000D+00  0.00000000D+00  0.00000000D+00
  0.00000000D+00  0.00000000D+00  0.00000000D+00  0.00000000D+00  0.00000000D+00
  0.00000000D+00  0.00000000D+00  0.00000000D+00  0.00000000D+00  0.00000000D+00
  0.00000000D+00  0.00000000D+00  0.00000000D+00  0.00000000D+00  0.00000000D+00
  0.83080036D-02 -0.48826427D-03 -0.77476471D-02 -0.00000000D+00  0.00000000D+00
  0.00000000D+00 -0.00000000D+00  0.00000000D+00  0.00000000D+00 -0.00000000D+00
  0.00000000D+00  0.00000000D+00  0.45184383D-03  0.00000000D+00  0.00000000D+00
  0.00000000D+00  0.52724690D-02  0.52724690D-02  0.52724690D-02  0.00000000D+00
  0.00000000D+00  0.00000000D+00
MO   21     MO 0.0        OCC NO =    1.0000000  ORB. ENERGY =   -8.672742
 -0.59732682D+00 -0.11038830D+01 -0.17906704D+01 -0.23695009D+01 -0.20292184D+01
 -0.62254579D+00 -0.16114204D+00 -0.71289393D+00 -0.98000549D+00  0.38228652D+00
  0.11920502D+01  0.39428054D+00  0.00000000D+00  0.00000000D+00  0.00000000D+00
  0.00000000D+00  0.00000000D+00  0.00000000D+00  0.00000000D+00  0.00000000D+00
  0.00000000D+00  0.00000000D+00  0.00000000D+00  0.00000000D+00  0.00000000D+00
  0.00000000D+00  0.00000000D+00  0.00000000D+00  0.00000000D+00  0.00000000D+00
 -0.15074454D-01  0.88593095D-03  0.14057716D-01 -0.00000000D+00  0.00000000D+00
  0.00000000D+00 -0.00000000D+00  0.00000000D+00  0.00000000D+00 -0.00000000D+00
  0.00000000D+00  0.00000000D+00 -0.11544222D-02  0.00000000D+00  0.00000000D+00
  0.00000000D+00 -0.64335976D-02 -0.64335976D-02 -0.64335976D-02  0.00000000D+00
  0.00000000D+00  0.00000000D+00
MO   22     MO 0.0        OCC NO =    1.0000000  ORB. ENERGY =   -6.845363
  0.00000000D+00  0.00000000D+00  0.00000000D+00  0.00000000D+00  0.00000000D+00
  0.00000000D+00 -0.00000000D+00 -0.00000000D+00 -0.00000000D+00  0.00000000D+00
  0.00000000D+00  0.00000000D+00  0.94420724D+01  0.11624373D+02  0.11579209D+02
  0.79841386D+01  0.32466752D+01  0.54701716D+00  0.00000000D+00  0.00000000D+00
  0.00000000D+00  0.00000000D+00  0.00000000D+00  0.00000000D+00  0.00000000D+00
  0.00000000D+00  0.00000000D+00  0.00000000D+00  0.00000000D+00  0.00000000D+00
 -0.00000000D+00  0.00000000D+00  0.00000000D+00 -0.95404071D-03  0.39248050D-02
  0.33341807D-02 -0.00000000D+00  0.00000000D+00  0.00000000D+00 -0.00000000D+00
  0.00000000D+00  0.00000000D+00  0.00000000D+00 -0.26636073D-03  0.00000000D+00
  0.00000000D+00  0.00000000D+00  0.00000000D+00  0.00000000D+00  0.00000000D+00
  0.00000000D+00  0.00000000D+00
MO   23     MO 0.0        OCC NO =    1.0000000  ORB. ENERGY =   -6.845363
  0.00000000D+00  0.00000000D+00  0.00000000D+00  0.00000000D+00  0.00000000D+00
  0.00000000D+00 -0.00000000D+00 -0.00000000D+00 -0.00000000D+00  0.00000000D+00
  0.00000000D+00  0.00000000D+00  0.00000000D+00  0.00000000D+00  0.00000000D+00
  0.00000000D+00  0.00000000D+00  0.00000000D+00  0.94420724D+01  0.11624373D+02
  0.11579209D+02  0.79841386D+01  0.32466752D+01  0.54701716D+00  0.00000000D+00
  0.00000000D+00  0.00000000D+00  0.00000000D+00  0.00000000D+00  0.00000000D+00
 -0.00000000D+00  0.00000000D+00  0.00000000D+00 -0.00000000D+00  0.00000000D+00
  0.00000000D+00 -0.95404071D-03  0.39248050D-02  0.33341807D-02 -0.00000000D+00
  0.00000000D+00  0.00000000D+00  0.00000000D+00  0.00000000D+00 -0.26636073D-03
  0.00000000D+00  0.00000000D+00  0.00000000D+00  0.00000000D+00  0.00000000D+00
  0.00000000D+00  0.00000000D+00
MO   24     MO 0.0        OCC NO =    1.0000000  ORB. ENERGY =   -6.845363
  0.00000000D+00  0.00000000D+00  0.00000000D+00  0.00000000D+00  0.00000000D+00
  0.00000000D+00 -0.00000000D+00 -0.00000000D+00 -0.00000000D+00  0.00000000D+00
  0.00000000D+00  0.00000000D+00  0.00000000D+00  0.00000000D+00  0.00000000D+00
  0.00000000D+00  0.00000000D+00  0.00000000D+00  0.00000000D+00  0.00000000D+00
  0.00000000D+00  0.00000000D+00  0.00000000D+00  0.00000000D+00  0.94420724D+01
  0.11624373D+02  0.11579209D+02  0.79841386D+01  0.32466752D+01  0.54701716D+00
 -0.00000000D+00  0.00000000D+00  0.00000000D+00 -0.00000000D+00  0.00000000D+00
  0.00000000D+00 -0.00000000D+00  0.00000000D+00  0.00000000D+00 -0.95404071D-03
  0.39248050D-02  0.33341807D-02  0.00000000D+00  0.00000000D+00  0.00000000D+00
 -0.26636073D-03  0.00000000D+00  0.00000000D+00  0.00000000D+00  0.00000000D+00
  0.00000000D+00  0.00000000D+00
END DATA
 TOTAL ENERGY =     -337.143305987692 THE VIRIAL(-V/T)=   2.00478803
