 Silicon-2
GAUSSIAN              8 MOL ORBITALS     52 PRIMITIVES        1 NUCLEI
  Si   1    (CENTRE  1)   0.00000000  0.00000000  0.00000000  CHARGE = 14.0
CENTRE ASSIGNMENTS    1  1  1  1  1  1  1  1  1  1  1  1  1  1  1  1  1  1  1  1
CENTRE ASSIGNMENTS    1  1  1  1  1  1  1  1  1  1  1  1  1  1  1  1  1  1  1  1
CENTRE ASSIGNMENTS    1  1  1  1  1  1  1  1  1  1  1  1
TYPE ASSIGNMENTS      1  1  1  1  1  1  1  1  1  1  1  1  2  2  2  2  2  2  3  3
TYPE ASSIGNMENTS      3  3  3  3  4  4  4  4  4  4  1  1  1  2  2  2  3  3  3  4
TYPE ASSIGNMENTS      4  4  1  2  3  4  5  6  7  8  9 10
EXPONENTS  0.1611590D+05 0.2425580D+04 0.5538670D+03 0.1563400D+03 0.5006830D+02
EXPONENTS  0.1701780D+02 0.2927180D+03 0.6987310D+02 0.2233630D+02 0.8150390D+01
EXPONENTS  0.3134580D+01 0.1225430D+01 0.2927180D+03 0.6987310D+02 0.2233630D+02
EXPONENTS  0.8150390D+01 0.3134580D+01 0.1225430D+01 0.2927180D+03 0.6987310D+02
EXPONENTS  0.2233630D+02 0.8150390D+01 0.3134580D+01 0.1225430D+01 0.2927180D+03
EXPONENTS  0.6987310D+02 0.2233630D+02 0.8150390D+01 0.3134580D+01 0.1225430D+01
EXPONENTS  0.1727380D+01 0.5729220D+00 0.2221920D+00 0.1727380D+01 0.5729220D+00
EXPONENTS  0.2221920D+00 0.1727380D+01 0.5729220D+00 0.2221920D+00 0.1727380D+01
EXPONENTS  0.5729220D+00 0.2221920D+00 0.7783690D-01 0.7783690D-01 0.7783690D-01
EXPONENTS  0.7783690D-01 0.4500000D+00 0.4500000D+00 0.4500000D+00 0.4500000D+00
EXPONENTS  0.4500000D+00 0.4500000D+00
MO    1     MO 0.0        OCC NO =    2.0000000  ORB. ENERGY =  -65.640253
  0.19907596D+01  0.36649974D+01  0.59075529D+01  0.77295497D+01  0.64963379D+01
  0.19341968D+01 -0.17996497D-02 -0.78929180D-02 -0.10803361D-01  0.41271388D-02
  0.12990425D-01  0.44621811D-02  0.00000000D+00  0.00000000D+00  0.00000000D+00
  0.00000000D+00  0.00000000D+00  0.00000000D+00  0.00000000D+00  0.00000000D+00
  0.00000000D+00  0.00000000D+00  0.00000000D+00  0.00000000D+00  0.00000000D+00
  0.00000000D+00  0.00000000D+00  0.00000000D+00  0.00000000D+00  0.00000000D+00
  0.71256331D-02 -0.54941145D-04 -0.68705684D-02 -0.00000000D+00  0.00000000D+00
  0.00000000D+00 -0.00000000D+00  0.00000000D+00  0.00000000D+00 -0.00000000D+00
  0.00000000D+00  0.00000000D+00  0.47916209D-03  0.00000000D+00  0.00000000D+00
  0.00000000D+00  0.38438730D-02  0.38425873D-02  0.38425873D-02  0.00000000D+00
  0.00000000D+00  0.00000000D+00
MO    2     MO 0.0        OCC NO =    2.0000000  ORB. ENERGY =   -4.778360
 -0.53579226D+00 -0.98639595D+00 -0.15899565D+01 -0.20803280D+01 -0.17484218D+01
 -0.52056896D+00 -0.14365009D+00 -0.63002171D+00 -0.86233662D+00  0.32943293D+00
  0.10369105D+01  0.35617638D+00  0.00000000D+00  0.00000000D+00  0.00000000D+00
  0.00000000D+00  0.00000000D+00  0.00000000D+00  0.00000000D+00  0.00000000D+00
  0.00000000D+00  0.00000000D+00  0.00000000D+00  0.00000000D+00  0.00000000D+00
  0.00000000D+00  0.00000000D+00  0.00000000D+00  0.00000000D+00  0.00000000D+00
 -0.19074215D-01  0.14706893D-03  0.18391446D-01 -0.00000000D+00  0.00000000D+00
  0.00000000D+00 -0.00000000D+00  0.00000000D+00  0.00000000D+00 -0.00000000D+00
  0.00000000D+00  0.00000000D+00 -0.16688239D-02  0.00000000D+00  0.00000000D+00
  0.00000000D+00 -0.68247638D-02 -0.72918992D-02 -0.72918992D-02  0.00000000D+00
  0.00000000D+00  0.00000000D+00
MO    3     MO 0.0        OCC NO =    2.0000000  ORB. ENERGY =   -3.144174
  0.00000000D+00  0.00000000D+00  0.00000000D+00  0.00000000D+00  0.00000000D+00
  0.00000000D+00 -0.00000000D+00 -0.00000000D+00 -0.00000000D+00  0.00000000D+00
  0.00000000D+00  0.00000000D+00  0.75965290D+01  0.93293074D+01  0.92478337D+01
  0.63985902D+01  0.26511226D+01  0.47638751D+00  0.00000000D+00  0.00000000D+00
  0.00000000D+00  0.00000000D+00  0.00000000D+00  0.00000000D+00  0.00000000D+00
  0.00000000D+00  0.00000000D+00  0.00000000D+00  0.00000000D+00  0.00000000D+00
 -0.00000000D+00  0.00000000D+00  0.00000000D+00 -0.15413894D-02  0.55276588D-02
  0.53424519D-02 -0.00000000D+00  0.00000000D+00  0.00000000D+00 -0.00000000D+00
  0.00000000D+00  0.00000000D+00  0.00000000D+00 -0.53020872D-03  0.00000000D+00
  0.00000000D+00  0.00000000D+00  0.00000000D+00  0.00000000D+00  0.00000000D+00
  0.00000000D+00  0.00000000D+00
MO    4     MO 0.0        OCC NO =    2.0000000  ORB. ENERGY =   -3.133057
  0.00000000D+00  0.00000000D+00  0.00000000D+00  0.00000000D+00  0.00000000D+00
  0.00000000D+00 -0.00000000D+00 -0.00000000D+00 -0.00000000D+00  0.00000000D+00
  0.00000000D+00  0.00000000D+00  0.00000000D+00  0.00000000D+00  0.00000000D+00
  0.00000000D+00  0.00000000D+00  0.00000000D+00  0.00000000D+00  0.00000000D+00
  0.00000000D+00  0.00000000D+00  0.00000000D+00  0.00000000D+00  0.76009245D+01
  0.93347056D+01  0.92531848D+01  0.64022926D+01  0.26526566D+01  0.47666316D+00
 -0.00000000D+00  0.00000000D+00  0.00000000D+00 -0.00000000D+00  0.00000000D+00
  0.00000000D+00 -0.00000000D+00  0.00000000D+00  0.00000000D+00 -0.14343001D-02
  0.51436200D-02  0.49712805D-02  0.00000000D+00  0.00000000D+00  0.00000000D+00
 -0.47958927D-03  0.00000000D+00  0.00000000D+00  0.00000000D+00  0.00000000D+00
  0.00000000D+00  0.00000000D+00
MO    5     MO 0.0        OCC NO =    2.0000000  ORB. ENERGY =   -3.133057
  0.00000000D+00  0.00000000D+00  0.00000000D+00  0.00000000D+00  0.00000000D+00
  0.00000000D+00 -0.00000000D+00 -0.00000000D+00 -0.00000000D+00  0.00000000D+00
  0.00000000D+00  0.00000000D+00  0.00000000D+00  0.00000000D+00  0.00000000D+00
  0.00000000D+00  0.00000000D+00  0.00000000D+00  0.76009245D+01  0.93347056D+01
  0.92531848D+01  0.64022926D+01  0.26526566D+01  0.47666316D+00  0.00000000D+00
  0.00000000D+00  0.00000000D+00  0.00000000D+00  0.00000000D+00  0.00000000D+00
 -0.00000000D+00  0.00000000D+00  0.00000000D+00 -0.00000000D+00  0.00000000D+00
  0.00000000D+00 -0.14343001D-02  0.51436200D-02  0.49712805D-02 -0.00000000D+00
  0.00000000D+00  0.00000000D+00  0.00000000D+00  0.00000000D+00 -0.47958927D-03
  0.00000000D+00  0.00000000D+00  0.00000000D+00  0.00000000D+00  0.00000000D+00
  0.00000000D+00  0.00000000D+00
MO    6     MO 0.0        OCC NO =    2.0000000  ORB. ENERGY =    0.090950
  0.12799285D+00  0.23563541D+00  0.37981710D+00  0.49695960D+00  0.41767213D+00
  0.12435623D+00  0.44640176D-01  0.19578324D+00  0.26797657D+00 -0.10237337D+00
 -0.32222652D+00 -0.11068407D+00  0.00000000D+00  0.00000000D+00  0.00000000D+00
  0.00000000D+00  0.00000000D+00  0.00000000D+00  0.00000000D+00  0.00000000D+00
  0.00000000D+00  0.00000000D+00  0.00000000D+00  0.00000000D+00  0.00000000D+00
  0.00000000D+00  0.00000000D+00  0.00000000D+00  0.00000000D+00  0.00000000D+00
 -0.15256461D+00  0.11763269D-02  0.14710350D+00 -0.00000000D+00  0.00000000D+00
  0.00000000D+00 -0.00000000D+00  0.00000000D+00  0.00000000D+00 -0.00000000D+00
  0.00000000D+00  0.00000000D+00  0.56532908D-01  0.00000000D+00  0.00000000D+00
  0.00000000D+00  0.67519013D-03 -0.97587485D-02 -0.97587485D-02  0.00000000D+00
  0.00000000D+00  0.00000000D+00
MO    7     MO 0.0        OCC NO =    2.0000000  ORB. ENERGY =    0.323079
  0.00000000D+00  0.00000000D+00  0.00000000D+00  0.00000000D+00  0.00000000D+00
  0.00000000D+00 -0.00000000D+00 -0.00000000D+00 -0.00000000D+00  0.00000000D+00
  0.00000000D+00  0.00000000D+00  0.00000000D+00  0.00000000D+00  0.00000000D+00
  0.00000000D+00  0.00000000D+00  0.00000000D+00  0.00000000D+00  0.00000000D+00
  0.00000000D+00  0.00000000D+00  0.00000000D+00  0.00000000D+00 -0.12785471D+01
 -0.15701854D+01 -0.15564729D+01 -0.10769259D+01 -0.44620183D+00 -0.80179236D-01
 -0.00000000D+00  0.00000000D+00  0.00000000D+00 -0.00000000D+00  0.00000000D+00
  0.00000000D+00 -0.00000000D+00  0.00000000D+00  0.00000000D+00 -0.17951950D-01
  0.64378444D-01  0.62221412D-01  0.00000000D+00  0.00000000D+00  0.00000000D+00
  0.43314623D-01  0.00000000D+00  0.00000000D+00  0.00000000D+00  0.00000000D+00
  0.00000000D+00  0.00000000D+00
MO    8     MO 0.0        OCC NO =    2.0000000  ORB. ENERGY =    0.323079
  0.00000000D+00  0.00000000D+00  0.00000000D+00  0.00000000D+00  0.00000000D+00
  0.00000000D+00 -0.00000000D+00 -0.00000000D+00 -0.00000000D+00  0.00000000D+00
  0.00000000D+00  0.00000000D+00  0.00000000D+00  0.00000000D+00  0.00000000D+00
  0.00000000D+00  0.00000000D+00  0.00000000D+00 -0.12785471D+01 -0.15701854D+01
 -0.15564729D+01 -0.10769259D+01 -0.44620183D+00 -0.80179236D-01  0.00000000D+00
  0.00000000D+00  0.00000000D+00  0.00000000D+00  0.00000000D+00  0.00000000D+00
 -0.00000000D+00  0.00000000D+00  0.00000000D+00 -0.00000000D+00  0.00000000D+00
  0.00000000D+00 -0.17951950D-01  0.64378444D-01  0.62221412D-01 -0.00000000D+00
  0.00000000D+00  0.00000000D+00  0.00000000D+00  0.00000000D+00  0.43314623D-01
  0.00000000D+00  0.00000000D+00  0.00000000D+00  0.00000000D+00  0.00000000D+00
  0.00000000D+00  0.00000000D+00
END DATA
 TOTAL ENERGY =     -289.122081765138 THE VIRIAL(-V/T)=   2.00263312
